AlCu3


16 atoms
2 atom types
0.0 5.83693 xlo xhi
0.0 5.83693 ylo yhi
0.0 5.83693 zlo zhi



Masses

1 26.981539 # Al
2 63.55 # Cu

Atoms

1 0 1 0.0 0.000000    0.000000    0.000000
2 0 1 0.0 0.000000    2.918466    2.918466
3 0 1 0.0 2.918466    0.000000    2.918466
4 0 1 0.0 2.918466    2.918466    0.000000
5 0 2 0.0 2.918466    0.000000    0.000000
6 0 2 0.0 1.459233    4.377699    4.377699
7 0 2 0.0 1.459233    1.459233    4.377699
8 0 2 0.0 2.918466    2.918466    2.918466
9 0 2 0.0 1.459233    1.459233    1.459233
10 0 2 0.0 1.459233    4.377699    1.459233
11 0 2 0.0 0.000000    0.000000    2.918466
12 0 2 0.0 4.377699    4.377699    1.459233
13 0 2 0.0 4.377699    1.459233    1.459233
14 0 2 0.0 0.000000    2.918466    0.000000
15 0 2 0.0 4.377699    1.459233    4.377699
16 0 2 0.0 4.377699    4.377699    4.377699
