Title


12 atoms
2 atom types
0.0 5.468000 xlo xhi
0.0 5.468000 ylo yhi
0.0 5.468000 zlo zhi



Masses

1 15.99939999999999962199 #O
2 140.116 #Ce

Atoms

1   0  2  0.0  0.000000  0.000000  0.000000
2   0  2  0.0  0.000000  2.734000  2.734000
3   0  2  0.0  2.734000  0.000000  2.734000
4   0  2  0.0  2.734000  2.734000  0.000000
5   0  1  0.0  1.367000  1.367000  1.367000
6   0  1  0.0  1.367000  1.367000  4.101000
7   0  1  0.0  1.367000  4.101000  1.367000
8   0  1  0.0  1.367000  4.101000  4.101000
9   0  1  0.0  4.101000  1.367000  1.367000
10  0  1  0.0  4.101000  1.367000  4.101000
11  0  1  0.0  4.101000  4.101000  1.367000
12  0  1  0.0  4.101000  4.101000  4.101000


