Output produced by LAMMPSStructureWriter


30 atoms
2 atom types
-6.00000000 6.00000000 xlo xhi
-6.00000000 6.00000000 ylo yhi
-6.00000000 6.00000000 zlo zhi
0.00000000 0.00000000 0.00000000 xy xz yz



Masses

1 26.98153800000000046566 #Al
2 63.54599999999999937472 #Cu

Atoms

1 0 1 0.0 9.38595362999999949238 3.65476277999999998869 3.19596664999999990897
2 0 1 0.0 1.78572966000000010744 0.31315321000000001517 6.97286485999999960939
3 0 1 0.0 0.76359162000000002646 0.35726222000000001922 8.65479773000000029981
4 0 1 0.0 9.10735511999999935995 7.62247286000000023876 0.01597813999999999832
5 0 1 0.0 7.50982923000000024416 9.59520174000000025671 7.38928821000000013441
6 0 1 0.0 2.02956012000000018958 8.93080229000000080930 1.11018744000000002536
7 0 1 0.0 4.80635997999999986519 3.80883617000000018749 1.16364930000000010857
8 0 1 0.0 6.42392296999999956597 0.33981128999999998808 6.07291856999999968281
9 0 1 0.0 4.10566901999999966932 9.63527870999999969115 2.90323287000000007652
10 0 1 0.0 6.52615704000000018681 5.19370979999999971000 8.09938812999999946385
11 0 1 0.0 0.79376544999999998353 4.25775652999999998372 0.63893074000000005253
12 0 1 0.0 4.23854445999999995820 9.70718347999999942033 0.31400112000000002244
13 0 1 0.0 1.07761062999999990275 3.73584371000000015073 3.29960363000000000966
14 0 1 0.0 4.69627659000000008405 7.03514227999999963714 5.07087905000000027655
15 0 1 0.0 3.83299761999999999418 7.98298665999999990106 7.39869481000000028814
16 0 1 0.0 5.54314688000000010959 4.81182956999999955627 9.56008723999999965315
17 0 1 0.0 1.09421162000000005143 3.27429881999999983222 1.81201082999999996126
18 0 1 0.0 8.24331985999999972137 2.94074290999999998775 1.33906853999999997384
19 0 1 0.0 4.85019704000000029254 1.21591832000000010794 9.81090284000000067977
20 0 1 0.0 6.41211392000000035551 8.78274850000000029127 3.13515926999999994251
21 0 1 0.0 3.19659438000000006852 6.16282677999999961571 4.29814091999999980942
22 0 1 0.0 5.21258682000000028722 4.59977983000000012481 3.19581659000000017912
23 0 1 0.0 1.60554985000000005613 2.75760072000000011627 6.29082042000000019044
24 0 1 0.0 7.93699183000000019206 5.28892354999999980691 2.07974620000000021136
25 0 1 0.0 6.34991460999999990378 9.83315078000000042380 9.65032051999999929137
26 0 2 0.0 9.93949761999999914508 9.54631907999999995695 4.36189656999999986198
27 0 2 0.0 8.49788550999999969804 1.00000401000000005425 8.33205058000000065022
28 0 2 0.0 5.55806737999999977973 7.40916394999999994297 0.29629496999999999085
29 0 2 0.0 7.29493457999999961316 9.92282355000000038103 4.24513349999999967110
30 0 2 0.0 2.96866487999999995040 1.33255886999999995091 5.54945647999999991384

