Title


3 atoms
2 atom types
0.0 100.000000 xlo xhi
0.0 100.000000 ylo yhi
0.0 100.000000 zlo zhi
0.000000 0.000000 0.000000 xy xz yz



Masses

1 1.0 
2 1.0 

Atoms

1 0 1 0.000000 0.000000 0.000000 0.000000
2 0 2 0.000000 2.700000 0.000000 0.000000
3 0 2 0.000000 0.000000 2.700000 0.000000


