Title


2 atoms
1 atom types
0.0 100.000000 xlo xhi
0.0 100.000000 ylo yhi
0.0 100.000000 zlo zhi
0.000000 0.000000 0.000000 xy xz yz



Masses

1 107.86820000000000163709 #Ag

Atoms

1 0 1 0.000000 0.000000 0.000000 0.000000
2 0 1 0.000000 1.400000 0.000000 0.000000


