Output produced by LAMMPSStructureWriter


12 atoms
2 atom types
0.00000000 5.46800000 xlo xhi
0.00000000 5.46800000 ylo yhi
0.00000000 5.46800000 zlo zhi



Masses

1 15.99939999999999962199 #O
2 238.02890999999999621650 #U

Atoms

1 0 2 0.0 0.00000000000000033482 2.73399999999999998579 2.73399999999999998579
2 0 1 0.0 1.36699999999999999289 1.36699999999999999289 1.36699999999999999289
3 0 2 0.0 2.73399999999999998579 0.00000000000000016741 2.73399999999999998579
4 0 2 0.0 0.00000000000000000000 0.00000000000000000000 0.00000000000000000000
5 0 2 0.0 2.73399999999999998579 2.73399999999999998579 0.00000000000000000000
6 0 1 0.0 4.10099999999999997868 4.10099999999999997868 4.10099999999999997868
7 0 1 0.0 4.10099999999999997868 4.10099999999999997868 1.36699999999999999289
8 0 1 0.0 4.10099999999999997868 1.36700000000000021494 4.10099999999999997868
9 0 1 0.0 4.10099999999999997868 1.36699999999999999289 1.36699999999999999289
10 0 1 0.0 1.36700000000000043698 4.10099999999999997868 4.10099999999999997868
11 0 1 0.0 1.36700000000000021494 4.10099999999999997868 1.36699999999999999289
12 0 1 0.0 1.36700000000000021494 1.36700000000000021494 4.10099999999999997868

